135
Lattice="19.415331582 0.0 0.0 0.0 19.332583227 0.0 0.0 0.0 19.078139956" Properties=species:S:1:pos:R:3:forces:R:3 Config_type="train-8" Weight=1.0 energy=-376.16385531 virial="-2.55427 0.30439 0.56185 0.30439 8.30585 -0.28946 0.56185 -0.28946 20.81879" pbc="T T T"
Cs 3.29338 3.33531 3.28586 -0.011294 0.010835 0.026639
Cs 15.9994 16.2044 15.69955 -0.025826 -0.027818 0.004771
Cs 16.13356 15.9781 3.21723 -0.043462 -0.020699 -0.002357
Cs 3.03984 3.36881 15.73889 -0.010074 -0.036456 -0.052309
Cs 16.21841 3.36575 15.88049 0.07031 -0.02812 -0.052029
Cs 3.299 15.96358 3.02646 -0.002942 -0.008161 0.014639
Cs 3.07079 16.12505 15.81481 0.003263 0.041255 0.006211
Cs 16.03052 3.03911 3.15324 0.081981 -0.013026 0.028297
Cs 3.32195 3.15331 9.45732 -0.084297 -0.017574 -0.000852
Cs 16.36226 16.20605 9.34192 0.059337 -0.003187 -0.009021
Cs 16.17273 3.25343 9.37208 0.07657 0.008505 0.05503
Cs 3.22236 16.06966 9.65454 -0.051459 0.051035 -0.028695
Cs 9.76552 3.19889 3.06342 -0.066024 -0.014492 0.058363
Cs 9.88748 16.10202 15.81994 -0.003004 0.000244 0.029054
Cs 9.57415 15.93944 3.04041 0.032227 0.020008 -0.055027
Cs 9.65789 3.28158 16.09288 -0.078865 -0.070296 -0.035256
Cs 3.13216 9.85791 3.30361 -0.030514 -0.044062 -0.087455
Cs 16.19812 9.64978 15.89885 0.020635 0.049828 -0.006348
Cs 3.15472 9.55716 15.99376 -0.008469 0.011611 -0.002524
Cs 16.07063 9.66557 3.19471 0.04008 0.02567 -0.040558
Cs 3.19703 9.47029 9.45115 -0.061512 -0.023968 0.118755
Cs 16.03836 9.56975 9.3876 0.024629 0.029727 0.050583
Cs 9.6193 3.14843 9.61265 0.017738 0.044899 -0.05524
Cs 9.72129 16.29178 9.64555 -0.014734 -0.037695 0.009285
Cs 9.85253 9.47697 3.35537 -0.000275 -0.012773 -0.01485
Cs 9.53096 9.76808 16.0833 0.008257 0.026036 -0.037386
Cs 9.53017 9.73625 9.59895 0.044308 -0.024904 0.031904
Pb 0.09653 19.16046 0.16847 -0.11206 0.762434 -0.1768
Pb 0.1162 19.23019 6.39833 -0.042596 0.457294 0.498392
Pb 19.23539 19.15906 12.79797 0.583242 0.962277 -0.085386
Pb 6.49693 0.07123 0.12526 0.117399 -0.216739 -0.488151
Pb 12.99213 0.05918 18.94977 -0.18371 -0.532306 0.016888
Pb 0.02798 6.27449 18.95805 0.123477 0.764242 0.252037
Pb 19.32896 12.99756 18.93938 0.139015 -0.516295 0.118055
Pb 19.31028 6.46927 6.40508 0.115062 -0.371708 -0.121866
Pb 0.14615 12.89906 12.52203 -0.425494 -0.213847 0.400069
Pb 0.05129 12.7951 6.26033 -0.107392 0.233439 0.385699
Pb 19.22944 6.30705 12.75622 0.478096 -0.06078 -0.6945
Pb 6.62648 19.27729 6.54252 -0.381306 0.340704 -1.175814
Pb 12.8348 19.21438 12.57727 0.534716 -0.109686 0.306493
Pb 6.4044 0.02393 12.56222 -0.271637 -0.018206 0.670727
Pb 12.96905 19.18241 6.3187 0.154734 0.173719 0.104362
Pb 6.62228 6.32651 18.94566 -0.655745 0.339116 0.195705
Pb 12.9112 12.78915 18.96034 0.09275 0.530283 0.06105
Pb 13.03323 6.26695 18.92897 0.19393 0.976755 0.617991
Pb 6.57188 13.00745 18.91858 -0.318906 -0.316174 -0.090234
Pb 6.31002 6.45966 6.48922 0.303032 -0.437403 -0.502968
Pb 12.97535 12.83947 12.54136 0.206528 0.062908 0.533898
Pb 12.90617 13.00112 6.4487 0.426177 -0.481328 -0.521966
Pb 6.58503 6.265 12.6234 -0.580812 0.399296 0.129038
Pb 12.80831 6.25334 12.74389 0.298599 0.084107 -0.093488
Pb 6.65842 12.7502 6.33601 -0.321448 0.261097 0.066321
Pb 6.54129 12.91943 12.56612 -0.180561 -0.205909 0.453752
Pb 13.12175 6.29532 6.15953 -0.719323 0.803821 0.141801
I 3.23257 19.22687 0.02571 -0.004223 0.007328 0.028286
I 16.03078 19.20042 0.11181 0.492602 0.071757 0.065636
I 19.36252 3.34828 19.05903 -0.023979 -0.861506 0.020007
I 0.07145 16.2507 18.96793 -0.024319 -0.625424 0.011294
I 0.11242 0.02607 3.36579 -0.008218 -0.01486 -0.659388
I 19.35188 0.07622 15.93304 -0.016943 0.045701 0.460579
I 3.20149 0.0648 6.5051 0.309722 -0.015583 -0.009713
I 16.3218 19.18243 12.5644 -0.986523 -0.058202 -0.043214
I 16.22122 19.14815 6.21831 -0.322457 0.057463 0.069727
I 3.12645 0.12744 12.77648 0.667518 -0.006857 -0.030816
I 6.44543 3.18585 19.03979 0.000229 0.169009 -0.035228
I 12.94914 16.00849 0.09524 -0.060278 0.654221 -0.028267
I 6.59885 16.14097 18.95705 0.003523 0.045189 0.079614
I 12.8705 3.37501 18.91006 -0.02662 -0.933889 -0.024414
I 19.27379 6.58929 3.24709 0.025187 -0.029511 -0.299345
I 0.14765 12.99335 15.90063 -0.044027 0.022711 -0.101111
I 19.23943 6.38113 15.71098 0.070526 -0.016036 0.823835
I 19.25613 13.05072 3.29424 -0.02014 0.034669 -0.55479
I 19.22381 3.07385 12.61443 0.032086 0.423494 0.01331
I 0.01597 16.26213 6.42851 0.027704 -0.908319 0.016021
I 0.181 16.28996 12.85152 0.110384 -1.351102 -0.010875
I 0.08151 3.11898 6.20729 -0.078573 0.51271 0.084625
I 3.13475 6.51393 0.05908 0.284306 -0.044571 -0.076319
I 16.15391 12.82148 19.05587 -0.130937 -0.005213 -0.014639
I 16.28223 6.49206 0.01456 -0.572867 -0.012085 -0.021183
I 3.08826 12.879 19.06804 0.263089 0.054713 0.073403
I 6.62418 19.30737 16.00387 -0.001088 -0.000337 -0.511183
I 12.86443 0.00262 3.2911 -0.014163 0.079584 -0.363876
I 6.64636 0.10139 3.10218 -0.021607 -0.022762 0.616624
I 13.0938 19.19731 15.80667 0.034639 0.055608 0.340284
I 3.08029 6.49898 6.51315 0.281161 -0.008727 -0.021235
I 16.2648 12.78731 12.59692 -0.351953 0.055222 0.034592
I 16.20459 13.02302 6.52466 -0.167221 0.026782 -0.029155
I 3.2193 6.62502 12.54395 0.097085 -0.169509 0.068552
I 16.18167 6.2459 12.73326 -0.494463 0.005964 0.033591
I 3.17055 12.85622 6.2064 0.336906 0.015597 0.03005
I 3.16471 12.83422 12.55263 0.446639 0.057352 -0.017775
I 16.11588 6.38363 6.39137 0.381134 0.007884 0.031096
I 6.48288 3.08618 6.52315 -0.059699 0.623755 -0.035645
I 12.87827 16.07342 12.89632 -0.038119 -0.023785 -0.087443
I 6.60652 16.26727 12.60668 -0.023317 -0.379608 0.003452
I 12.96237 3.40485 6.42039 0.014497 -0.887992 0.073653
I 12.92246 16.09945 6.41108 -0.055383 0.372672 0.005412
I 6.41821 3.16182 12.86826 0.012873 0.004252 -0.059608
I 12.84503 3.0377 12.74013 0.049858 0.493097 0.026422
I 6.60145 16.29217 6.37401 -0.003487 -0.957757 -0.054776
I 6.43922 6.3526 3.16441 -0.000225 -0.009068 -0.041277
I 12.9144 13.02235 15.83534 0.00114 0.026162 -0.202733
I 12.992 6.59217 16.05425 -0.002279 0.043833 -0.991224
I 6.54799 12.7901 3.25345 0.021416 0.04793 -0.224595
I 6.67016 12.69727 15.72274 -0.090256 0.092087 0.426752
I 12.90363 6.26891 3.02873 -0.015104 0.040479 0.430331
I 12.91125 12.92371 3.07559 -0.035872 -0.015667 0.34577
I 6.59348 6.36546 15.70925 -0.025627 -0.000684 0.403171
I 9.80712 0.15219 0.13755 -0.236646 0.024329 -0.043902
I 0.01011 9.61701 18.95536 -0.032606 0.415736 -0.01849
I 0.09606 19.18226 9.66807 -0.014674 0.004306 -0.28097
I 9.67059 0.14681 6.39959 0.403977 0.008093 0.037608
I 9.88599 0.00966 12.90973 -0.719983 0.001228 -0.030697
I 6.64194 9.73286 18.90242 -0.129825 -0.179622 0.038999
I 12.81287 9.8475 18.90924 0.023225 -0.892651 0.051711
I 19.31621 6.6244 9.53405 -0.058376 -0.028971 -0.073785
I 19.29562 12.76996 9.55233 0.054038 0.076474 -0.302207
I 19.40938 9.59375 12.61381 -0.017882 0.232265 0.089237
I 19.41219 9.66623 6.24662 -0.035835 0.041368 0.007519
I 9.58361 6.57858 19.00339 0.637405 -0.0676 0.016117
I 9.6004 12.74928 18.88838 0.264618 0.123038 0.070938
I 6.51348 19.32733 9.42435 0.008648 0.019506 1.039655
I 12.77233 19.19471 9.56476 -0.001277 0.025919 -0.349412
I 9.78341 6.49746 6.43682 -0.220029 0.047963 -0.024844
I 9.60428 12.70244 12.60207 0.293983 0.053946 0.001501
I 9.74795 12.80085 6.47697 -0.141626 -0.023717 -0.043147
I 9.6965 6.29902 12.60547 0.150784 -0.005239 -0.00378
I 6.35741 9.59292 6.40414 0.018334 0.226186 0.042349
I 12.79573 9.78723 12.80616 0.02469 -0.490945 0.010985
I 6.34167 9.57477 12.60709 0.077311 0.183395 -0.076878
I 13.08804 9.86157 6.46249 -0.001304 -0.232234 -0.097389
I 6.47926 6.26845 9.51911 0.025432 -0.015146 -0.047649
I 12.83326 12.83954 9.50521 -0.028669 0.040926 -0.058556
I 13.04001 6.50732 9.71051 0.012857 -0.004573 -0.246943
I 6.61919 13.01246 9.60119 -0.053176 0.020315 -0.728957
135
Lattice="19.430837064 0.0 0.0 0.0 19.428096803 0.0 0.0 0.0 19.342623795" Properties=species:S:1:pos:R:3:forces:R:3 Config_type="train-1" Weight=1.0 energy=-375.97770942 virial="-4.17497 -0.42391 -0.26896 -0.42391 -7.81394 0.21337 -0.26896 0.21337 -2.32299" pbc="T T T"
Cs 3.26415 3.25468 3.39475 0.064393 0.068758 -0.070417
Cs 16.17057 16.28994 16.22542 0.033822 -0.013285 -0.009703
Cs 16.36021 16.28128 3.37768 -0.034775 -0.070366 0.043873
Cs 3.23348 3.18742 16.08604 0.073926 0.013808 -0.009586
Cs 16.23728 3.09824 16.20997 0.099438 0.033941 -0.022184
Cs 3.20201 16.01567 3.23918 0.014733 -0.081358 -0.075302
Cs 3.08485 16.37418 16.01823 0.022694 0.034579 0.033763
Cs 16.23402 3.26421 3.22528 -0.032716 0.032978 0.040852
Cs 3.38776 3.07897 9.49275 0.009924 0.067611 0.091569
Cs 16.26391 16.00368 9.78408 0.020036 -0.025307 -0.016191
Cs 16.011 3.43117 9.652 0.060942 0.048913 -0.04885
Cs 3.2788 16.26146 9.59228 0.101872 -0.023666 0.027654
Cs 9.7965 3.24131 3.33802 -0.017956 -0.079695 -0.072141
Cs 9.74216 16.34906 16.03582 -0.06818 -0.02887 0.005327
Cs 9.91456 16.14845 3.25552 -0.006487 0.002845 -0.011991
Cs 9.89505 3.08222 16.15166 -0.130073 -0.037206 0.024981
Cs 3.18311 9.86392 3.03836 0.023499 0.005613 -0.102272
Cs 16.35749 9.69069 16.25689 0.005986 -0.01465 0.079197
Cs 3.09836 9.52578 16.0033 0.052925 -0.026792 0.043526
Cs 16.38768 9.84693 3.34916 -0.073064 0.019338 -0.019541
Cs 3.10263 9.77446 9.80853 0.070786 -0.056468 0.010529
Cs 16.26781 9.57843 9.80904 -0.041084 -0.030416 -0.028748
Cs 9.76908 3.19126 9.47419 -0.032547 0.05231 0.024679
Cs 9.69452 16.33106 9.80117 -0.123319 -0.094723 0.022511
Cs 9.75499 9.65757 3.04093 0.050516 0.048548 0.041232
Cs 9.70971 9.66644 16.26221 -0.022642 0.083566 -0.005665
Cs 9.78396 9.53204 9.77021 0.038654 0.050633 -0.031901
Pb 19.38017 0.1804 0.12692 0.713686 -0.135299 -1.078524
Pb 0.15177 19.40095 6.45821 -0.604554 0.063839 0.098705
Pb 19.31099 0.15653 12.73748 0.316964 -0.063105 1.065335
Pb 6.32573 19.28013 0.16578 0.552487 0.238426 -0.365605
Pb 13.14757 0.12466 19.16716 -0.49486 -0.376956 0.336944
Pb 19.40573 6.44369 19.2944 0.233516 0.338575 -0.101317
Pb 19.30375 13.03635 19.23609 1.004567 -0.507478 0.670631
Pb 0.04269 6.57204 6.34071 0.083872 -0.22447 0.354502
Pb 0.12667 13.01302 13.01537 0.029403 0.025383 -0.118242
Pb 19.3352 12.84462 6.45566 -0.033134 0.415529 -0.136798
Pb 19.33965 6.46549 12.84101 0.492259 -0.082051 -0.107722
Pb 6.55574 0.0003 6.39376 -0.073779 -0.291968 0.024578
Pb 13.06015 0.18744 12.69765 -0.157301 -0.558853 0.199412
Pb 6.38694 0.08891 12.96834 -0.031244 0.047886 0.131954
Pb 13.11114 19.28417 6.57408 -0.303271 0.432628 -0.831383
Pb 6.60387 6.53094 0.04443 -0.287437 -0.215674 -0.248932
Pb 13.01107 13.08809 0.03018 -0.103474 -0.337386 0.383945
Pb 12.89351 6.3396 19.29499 0.425036 0.479565 0.165257
Pb 6.58641 12.94539 0.01323 -0.664379 0.16151 -0.22113
Pb 6.67652 6.36087 6.45847 -0.271254 0.228111 -0.096788
Pb 13.11814 13.06359 12.94962 -0.567675 -0.228975 0.043483
Pb 12.98811 12.90945 6.57849 -0.355961 -0.260296 -0.75179
Pb 6.62095 6.62816 12.81888 -0.211422 -0.55552 0.288059
Pb 13.09301 6.34597 12.9452 -0.353658 0.507656 -0.243654
Pb 6.39816 12.81118 6.27625 0.357605 0.183732 0.387854
Pb 6.37235 12.86426 13.06102 0.980723 0.207337 -0.251495
Pb 12.97508 6.28987 6.33867 0.083953 1.100439 0.073454
I 3.33423 0.04956 0.06049 -0.804171 0.00952 0.060819
I 16.36919 19.39479 0.04922 -0.694878 -0.056807 -0.041444
I 19.33869 3.28174 19.28782 -0.016344 -0.334076 -0.008093
I 0.18239 15.99073 19.1921 0.025479 0.751829 0.060119
I 19.41635 0.06785 3.03095 -0.007708 -0.036963 1.142919
I 0.05758 0.00362 16.04622 -0.037633 0.03539 0.17764
I 3.08157 0.00585 6.40468 0.523381 -0.050518 -0.050761
I 16.24048 0.10756 12.90865 -0.492207 -0.042412 0.018753
I 16.11192 0.13369 6.48742 0.353249 0.009985 -0.031087
I 3.04123 0.01834 12.7029 0.497379 -0.027864 0.055638
I 6.40264 3.38753 0.09345 0.014981 0.005438 0.008114
I 12.75394 16.1523 19.19848 0.029311 0.42957 0.06074
I 6.60389 16.22324 19.3014 -0.049613 -0.032087 0.03307
I 12.83005 3.17398 0.14252 0.072757 -0.01804 -0.091275
I 19.33762 6.35847 3.28418 -0.021691 -0.016762 -0.193463
I 0.03831 12.88337 16.26894 0.034994 -0.10528 -0.87982
I 0.11991 6.47052 15.93477 -0.021036 -0.017595 0.590967
I 19.23698 12.90183 3.21819 0.021195 -0.018155 0.230795
I 19.36944 3.26994 12.766 -0.035399 -0.057866 0.059309
I 19.34568 16.0966 6.27948 0.026649 0.270336 0.014615
I 0.01006 16.17342 13.00918 -0.002605 -0.158856 0.005599
I 0.10619 3.19007 6.60663 -0.020306 0.059254 -0.078417
I 3.12289 6.44725 0.18132 0.332679 0.04924 -0.01451
I 16.38044 13.08981 19.15183 -1.125887 0.02768 -0.01283
I 16.31818 6.37415 19.27872 -0.542291 -0.059664 -0.020158
I 3.2696 12.78405 0.02622 -0.096122 0.000849 0.089156
I 6.27782 0.12959 16.30429 -0.008005 0.003337 -0.570093
I 12.91342 0.18802 3.3322 0.052229 -0.043295 -0.34334
I 6.6462 0.19045 3.17817 -0.078076 0.016873 0.468522
I 13.01185 19.28235 15.98889 0.074547 0.108886 0.181017
I 3.2783 6.54251 6.54512 -0.12079 0.009183 -0.048807
I 16.1784 13.02325 12.78015 0.286127 -0.034369 0.017544
I 16.07882 12.96105 6.43812 0.678863 0.013443 0.05643
I 3.35749 6.42642 12.70498 -0.138919 0.063804 0.052197
I 16.21699 6.41939 12.84251 -0.002129 0.037713 -0.021227
I 3.25663 12.88655 6.48453 -0.171454 0.003715 -0.04773
I 3.438 12.89733 13.06575 -1.325236 0.033692 -0.041406
I 16.12306 6.46501 6.48202 0.290955 0.021218 -0.012673
I 6.47492 3.20213 6.49451 -0.037746 0.268743 0.000612
I 12.93969 16.21545 12.80839 0.01805 0.055322 -0.067296
I 6.65534 16.32344 12.88359 -0.049801 -0.057805 0.027708
I 13.02899 3.4343 6.48845 -0.020619 -1.134536 0.020129
I 13.09637 16.3339 6.47231 -0.023591 -0.459662 0.029241
I 6.28392 3.38677 12.8523 0.049221 -0.283872 0.011278
I 12.99313 3.19092 12.73466 0.030298 0.245334 0.026908
I 6.67539 16.26002 6.58467 -0.052168 -0.085861 -0.085402
I 6.3449 6.56104 3.10566 0.061327 0.031209 0.769882
I 12.99363 13.06488 16.29605 0.06605 -0.037403 -0.69798
I 13.10322 6.29007 16.11427 -0.017025 -0.05176 -0.164837
I 6.42936 13.00809 3.09686 -0.039869 0.032557 0.531657
I 6.36637 12.95245 16.20939 -0.015185 0.025995 -0.222373
I 12.78487 6.37157 3.11516 0.03098 -0.022756 0.011898
I 13.13475 13.03987 3.27987 0.016769 0.097493 -0.283384
I 6.37151 6.49601 16.28231 0.037803 0.054227 -0.440058
I 9.53398 0.09943 0.06863 0.650661 0.028858 -0.109452
I 19.2486 9.58101 0.07008 -0.013045 0.084826 -0.004265
I 0.0508 0.10539 9.84749 -0.00869 -0.139038 -1.415234
I 9.57106 0.18812 6.36211 0.353757 0.019247 0.08168
I 9.73995 0.14696 13.08175 -0.020082 0.005721 -0.067563
I 6.62367 9.88724 19.33533 0.01486 -0.469455 0.028111
I 12.95558 9.75378 0.0633 0.004668 -0.193699 -0.043132
I 19.32893 6.43103 9.72327 -0.046499 0.087118 -0.396633
I 19.3933 13.15084 9.75927 0.03134 -0.046153 0.041331
I 0.15514 9.58776 12.93769 -0.064236 0.45812 -0.028012
I 19.2853 9.80764 6.44828 0.004822 -0.493699 0.029515
I 9.84359 6.36198 0.01449 -0.296467 0.039601 -0.059599
I 9.57172 12.89737 19.16235 0.957085 0.010976 0.036636
I 6.34416 0.0467 9.58474 0.020429 0.026658 0.246973
I 13.10977 0.13493 9.54736 -0.082713 0.05167 0.724091
I 9.78353 6.5295 6.5654 -0.240434 -0.064517 -0.039934
I 9.5645 12.89869 13.0491 0.426927 0.012493 -0.003149
I 9.8702 12.8632 6.28271 -0.450526 0.119815 -0.064409
I 9.90271 6.30065 12.71318 -0.136732 0.009185 0.055516
I 6.6525 9.73686 6.58848 -0.024311 -0.13743 -0.054412
I 12.77708 9.72339 12.87103 0.118366 -0.102902 0.023955
I 6.35662 9.64969 13.01133 0.014424 0.433797 0.005434
I 12.79531 9.74847 6.29398 0.109237 0.114134 0.013017
I 6.35848 6.49744 9.72768 0.1026 0.02282 -0.328638
I 12.79726 12.77415 9.50166 0.029416 0.039358 1.132863
I 12.81933 6.40516 9.53846 0.109928 0.015215 0.297471
I 6.41148 13.07827 9.70668 -0.043521 -0.033513 -0.082909
135
Lattice="18.3624809 -0.061865156 -0.565730389 0.499699452 18.668455401 0.349919392 -0.199715262 0.311685059 18.410530951" Properties=species:S:1:pos:R:3:forces:R:3 Config_type="train-6" Weight=1.0 energy=-367.1376758 virial="123.91575 -1.94727 4.17083 -1.94727 88.84239 -3.75516 4.17083 -3.75516 118.20145" pbc="T T T"
Cs 3.24558 3.07491 2.9912 -0.116919 -0.021115 0.037817
Cs 15.42949 15.59329 15.1104 -0.037565 0.072755 -0.012555
Cs 15.88079 15.58871 2.93123 -0.192818 0.002929 -0.021406
Cs 2.9989 3.37327 15.29235 -0.027547 -0.045152 -0.098303
Cs 15.27821 3.49618 14.84804 -0.034586 0.01628 -0.002443
Cs 3.50575 15.47128 3.31007 0.044219 0.056243 -0.056
Cs 3.29495 15.89219 15.61349 0.133354 -0.007605 -0.045497
Cs 15.21793 3.2695 2.51878 0.037344 -0.024166 -0.01295
Cs 3.1636 3.36388 9.21686 -0.122627 -0.197507 0.049498
Cs 15.5423 15.78844 8.92816 -0.008293 0.051082 -0.001636
Cs 15.31276 3.2206 8.75481 0.086461 -0.131819 0.070691
Cs 3.47258 15.73775 9.52086 -0.058235 0.086131 0.011855
Cs 9.2756 3.18391 2.93445 0.062963 0.004017 -0.074963
Cs 9.40547 15.8837 15.30956 -0.015347 0.007338 0.066888
Cs 9.72859 15.5133 3.11775 0.019232 -0.008055 -0.158486
Cs 9.07331 3.49575 14.93151 0.086461 -0.126698 0.104169
Cs 3.28683 9.26526 3.18076 0.112308 0.034611 -0.063561
Cs 15.49127 9.63377 14.93792 -0.000939 -0.111312 0.124179
Cs 3.05708 9.40663 15.55351 0.063358 0.076988 0.001403
Cs 15.61413 9.41788 2.90853 -0.145135 0.024895 -0.22727
Cs 3.22203 9.35053 9.31805 0.055719 0.11387 0.019185
Cs 15.49892 9.28621 8.84642 -0.067192 0.047844 0.084914
Cs 9.33025 3.42068 8.86248 -0.013329 -0.109662 0.096623
Cs 9.2982 15.49389 9.1648 0.10246 0.11185 0.037255
Cs 9.47206 9.3824 3.07741 -0.032299 0.058283 -0.134462
Cs 9.12464 9.7292 15.1157 0.014275 -0.012382 0.148948
Cs 9.29077 9.60321 8.92007 0.027361 -0.029446 0.008418
Pb 18.73304 18.52512 -0.16957 0.25146 0.077732 -0.209678
Pb 0.43919 18.58356 6.31513 -0.283801 1.256412 0.976278
Pb 18.67386 18.68918 12.25457 0.577324 1.25508 -1.35693
Pb 5.9736 0.16703 -0.03545 0.847355 -1.064719 -0.722681
Pb 12.91376 18.54748 0.08008 -1.975068 -0.161164 -1.01729
Pb 0.34053 6.04865 0.24905 -1.302339 0.695364 -1.498156
Pb 0.4221 12.49773 0.36308 -0.270818 -0.683277 -1.232706
Pb 18.4344 6.4547 5.82217 -0.029057 -1.154487 -0.776562
Pb 0.2828 12.64253 12.43772 0.334747 0.337385 -0.265365
Pb 0.43894 12.41751 6.23257 -0.783653 0.868397 0.48497
Pb 0.15351 6.6237 12.3153 -0.493395 -1.286147 0.875533
Pb 6.0123 0.12131 5.77628 0.154462 -0.767365 2.044708
Pb 11.99504 0.27133 11.97143 0.339738 0.088299 -0.073509
Pb 5.7993 0.21076 12.00026 0.538154 0.359653 0.164875
Pb 12.07944 0.21901 5.80458 1.399211 -1.11657 -0.276176
Pb 5.96944 6.36639 18.27154 1.016218 0.643682 -0.212773
Pb 12.43753 12.66076 18.07409 -0.585628 -0.181352 0.268402
Pb 12.04644 6.50503 17.98817 1.801202 0.182298 1.411645
Pb 6.2769 12.42802 0.09309 2.088789 -0.1752 -0.679553
Pb 6.09331 6.16189 6.03725 0.791365 0.459771 -0.066583
Pb 12.59054 12.46746 12.16118 -0.762961 0.648916 -0.92983
Pb 12.65737 12.33475 6.00106 -0.091269 0.697082 -0.669851
Pb 6.0934 6.4246 12.02399 1.252378 0.14948 1.854868
Pb 12.18139 6.47205 11.82953 0.500189 -0.149317 1.115646
Pb 6.50734 12.64378 6.23229 -0.143887 -1.185633 -0.785116
Pb 6.39238 12.49523 12.17883 -0.27289 0.936539 0.6834
Pb 12.45266 6.34576 5.69793 -2.015301 -0.788879 0.590679
I 2.83429 0.32559 18.29257 -0.743413 0.019971 0.024959
I 15.17751 0.10703 -0.45074 1.709479 0.013745 -0.024219
I 18.38227 3.06472 -0.49257 -0.042384 -0.706316 0.009937
I 0.55906 15.46231 0.31061 -0.003206 0.785052 -0.001907
I 0.10735 0.18747 3.04776 0.047254 0.072855 -0.745811
I -0.00347 0.34446 15.30002 0.075104 0.032468 1.228676
I 3.47477 18.58191 6.44571 0.377649 -0.022708 -0.09006
I 15.34818 0.31796 11.87776 -1.384802 0.100065 -0.047646
I 15.72057 18.58875 5.93021 -0.012961 0.036434 -0.086323
I 2.88776 0.33744 12.17424 -0.123091 0.088404 0.000646
I 6.40352 3.06024 -0.05348 0.078708 0.145538 0.026253
I 12.32247 15.62939 18.2914 0.091888 0.986497 -0.005681
I 6.37347 15.79844 18.49117 -0.110059 0.310479 0.058977
I 12.22767 3.35787 17.90788 -0.025283 -0.174405 0.12476
I 18.48725 6.31964 2.4454 -0.040081 0.170825 1.994117
I 18.52699 12.81129 14.84277 0.035538 -0.029921 0.60898
I 18.26885 6.26432 14.89999 0.091486 0.164764 -0.30467
I 0.35745 12.47216 3.22975 -0.085547 -0.052303 0.417785
I 0.08124 3.36478 12.43362 0.035037 0.264844 -0.105688
I 18.54499 15.70461 5.71253 -0.02462 -1.770053 -0.00816
I 0.42226 15.94005 12.49658 0.033597 -1.655129 -0.167214
I 18.33076 3.02428 5.70955 -0.009753 0.882038 -0.139848
I 3.04441 6.34946 18.37962 0.197354 -0.005849 -0.042799
I 15.44301 12.83576 18.0903 0.633988 0.013703 0.0003
I 15.18307 6.58399 17.89679 0.775425 -0.009375 0.105461
I 3.52391 12.42783 0.20293 -1.926817 -0.068722 0.023573
I 6.64902 18.75939 15.43982 -0.184812 0.156615 0.471195
I 12.58677 18.61552 2.89487 -0.082057 0.048257 1.419461
I 6.58646 18.66971 3.38741 0.065929 -0.104949 -1.915818
I 12.16235 0.27802 14.99401 -0.006544 -0.019974 -0.069455
I 3.16897 6.24942 6.29303 -0.94542 0.138503 -0.005096
I 15.51146 12.73422 11.90899 0.506568 -0.011143 -0.078721
I 15.70263 12.30186 6.05854 -0.355456 0.109879 -0.042316
I 3.28967 6.53129 12.42852 -1.424125 0.0374 0.11324
I 15.26295 6.3206 11.84179 0.797885 0.135561 -0.088386
I 3.25698 12.7065 6.17524 1.2273 -0.033322 -0.021361
I 3.45415 12.53781 12.28445 -1.371977 0.105978 0.034942
I 15.20288 6.36935 5.58435 2.208758 -0.122439 0.077297
I 5.99772 3.04088 5.97318 0.034065 0.75522 -0.019936
I 12.68199 15.8869 12.31791 -0.033582 -0.47225 -0.037706
I 6.36545 15.92619 12.397 -0.02558 -0.79157 -0.08888
I 12.25932 3.09357 5.91527 0.055347 1.140503 0.020111
I 12.39337 15.62223 6.18221 0.151924 -0.285387 -0.117606
I 6.25029 3.40552 12.18899 -0.078375 -0.163995 0.063827
I 12.36505 3.46703 12.01377 -0.037383 -0.494836 -0.016404
I 6.33136 15.46827 6.23813 -0.018747 1.542837 0.018974
I 6.29438 6.32433 2.96578 -0.071983 -0.114186 0.308837
I 12.32395 12.66491 15.01032 0.019205 -0.032128 0.581888
I 12.16922 6.42308 15.25665 0.026752 0.08454 -2.212179
I 6.48418 12.44383 3.00687 0.036105 -0.001121 0.966582
I 6.26548 12.61259 15.40548 -0.099355 -0.020329 -0.447986
I 12.37744 6.18158 2.79537 -0.088839 -0.045188 -0.258902
I 12.48768 12.41684 2.72557 0.094523 -0.04199 0.567635
I 6.16464 6.54913 15.20276 0.020544 -0.002998 0.332715
I 9.36696 18.81518 18.40993 0.239097 0.021536 0.105675
I 18.37724 9.63858 17.95447 0.101691 -0.22088 -0.042052
I -0.01159 0.32429 9.04214 -0.023167 -0.151153 0.508926
I 9.29066 0.10903 5.96679 -1.942852 0.026896 0.009719
I 9.00938 0.29852 11.9672 -0.043001 0.025388 -0.047356
I 6.56732 9.1292 0.12754 -0.111688 0.276622 -0.068517
I 12.42475 9.35942 -0.08966 -4.6e-05 -0.59768 0.009821
I 0.26563 6.37883 9.32977 -0.018563 -0.044373 -0.172714
I 0.33094 12.65446 9.2829 0.058412 0.020353 0.201398
I 0.29116 9.53431 12.4014 -0.037303 0.812929 0.028285
I 18.35535 9.42971 5.85425 0.090032 -0.271097 0.015633
I 9.52169 6.07662 -0.14222 -2.460427 -0.101732 0.2175
I 9.30993 12.72881 18.17077 0.015072 -0.027647 -0.020437
I 5.90447 0.2927 8.94642 0.052574 -0.044869 -0.072325
I 12.62353 18.60411 9.19061 0.108749 0.061257 0.036317
I 9.11592 6.48828 6.07568 0.48872 -0.132795 0.027918
I 9.22983 12.81191 12.30786 1.57027 0.066263 -0.060423
I 9.49481 12.71376 5.94625 0.171303 -0.118036 0.00785
I 9.30927 6.38727 12.2696 -0.901425 0.111118 0.028674
I 6.43612 9.47908 6.01248 -0.229744 -0.524837 0.072605
I 12.44607 9.5004 12.01158 0.034067 0.19882 0.035084
I 6.19908 9.61834 12.30223 0.083534 -0.825415 -0.057844
I 12.54392 9.26083 5.95123 -0.111927 0.645067 0.068931
I 6.19251 6.18967 9.31128 0.048478 -0.047497 -2.487547
I 12.3231 12.60026 8.9204 -0.056296 -0.079166 0.629383
I 12.14651 6.33656 8.99858 -0.033771 0.001588 -1.180317
I 6.25583 12.53831 9.17189 -0.018155 -0.053224 0.14491
135
Lattice="19.143869374 0.415688941 0.237569821 0.492553074 19.29653639 -0.216462088 0.370122461 -0.515921941 18.683457715" Properties=species:S:1:pos:R:3:forces:R:3 Config_type="train-7" Weight=1.0 energy=-373.22831595 virial="35.38191 -6.81706 -5.27389 -6.81706 15.22084 5.26671 -5.27389 5.26671 68.26664" pbc="T T T"
Cs 3.52698 3.29374 3.24698 -0.065031 0.005825 -0.033971
Cs 16.65152 16.04671 15.39638 -0.067933 -0.031609 0.071086
Cs 16.29984 16.35711 3.32372 0.132896 -0.03495 -0.135224
Cs 3.4424 2.99471 15.75997 -0.006234 0.011134 -0.077369
Cs 16.49958 3.18273 15.6223 0.037949 -0.039109 -0.028392
Cs 3.51246 16.15305 3.07046 0.012637 -0.063279 0.074157
Cs 3.94984 15.56747 15.41403 -0.007645 0.05086 0.074244
Cs 15.89725 3.59858 3.42636 0.129225 -0.002205 -0.061494
Cs 3.52046 3.1276 9.21752 -0.116326 -0.115844 0.060196
Cs 16.61344 16.18065 9.31976 0.083759 0.010177 0.066183
Cs 16.14495 3.3619 9.33855 0.126014 0.002077 0.056598
Cs 3.78509 15.71188 9.38498 -0.00685 0.107991 -0.105832
Cs 9.5464 3.2149 3.2466 -0.073739 0.050434 -0.03486
Cs 10.29772 15.98926 15.59861 0.087504 -0.12021 -0.088294
Cs 9.84902 16.36658 2.94793 -0.094848 -0.203975 0.043985
Cs 9.95189 2.84605 15.77354 -0.008118 -0.001488 -0.039804
Cs 3.60887 9.4338 3.2033 -0.039048 0.034651 -0.056617
Cs 16.53139 9.38391 15.79333 -0.025241 0.109111 -0.049814
Cs 3.89525 9.14136 15.48219 -0.125842 -0.045253 0.077519
Cs 16.25524 9.72979 3.3075 0.041895 -0.036211 -0.021346
Cs 3.53718 9.43585 9.1525 -0.097061 0.020421 0.027724
Cs 16.47023 9.60351 9.32703 0.015738 0.003127 0.078166
Cs 9.96823 3.1623 9.36674 -0.039928 -0.05268 0.079002
Cs 10.32812 16.22262 9.46192 -0.094327 -0.120599 0.024903
Cs 10.06828 9.78064 3.30041 -0.033256 0.14811 -0.009602
Cs 10.04338 9.37581 15.64272 0.095471 0.129894 0.04151
Cs 10.06368 9.40514 9.29545 0.015512 0.167663 0.009334
Pb 0.06967 0.04547 0.08965 -0.550614 -0.017587 -0.1068
Pb 19.06946 0.27394 6.37964 1.588817 -0.070235 1.310948
Pb 0.75784 18.774 12.40899 0.122995 1.086359 -1.851967
Pb 6.84648 19.32995 -0.11492 -0.438093 0.15993 -0.494571
Pb 12.59531 0.40144 0.25839 0.534378 -0.366387 -0.788558
Pb 19.49321 6.38663 18.67686 1.068394 -0.016778 0.714938
Pb 0.77738 12.30682 18.41852 -0.018361 0.136431 0.81027
Pb 0.4261 6.20616 6.0358 -0.806999 0.138888 0.189894
Pb 0.74204 12.68839 12.4488 -1.051509 -0.538053 -0.431858
Pb 19.41071 13.03721 6.14289 1.138189 0.473427 0.216885
Pb 19.52427 6.43609 12.43914 0.268381 0.172609 0.264926
Pb 7.11556 19.16978 6.22878 -1.590665 -0.293239 -0.676084
Pb 13.04539 0.04844 12.66197 0.066492 -0.326781 -0.152417
Pb 6.75639 -0.0596 12.70865 -0.322118 -0.445573 -1.050957
Pb 13.23152 19.21186 6.18499 0.144652 0.343611 -0.034047
Pb 6.5582 6.64642 0.03623 -0.307821 -0.153293 0.140012
Pb 13.22293 13.30794 0.19534 -0.288939 -0.820239 -1.519644
Pb 13.24613 6.1789 18.60269 0.45643 0.428034 0.226499
Pb 7.16085 12.4986 18.59398 -0.151729 -0.322693 1.08905
Pb 6.81477 6.28277 6.41691 -0.333855 0.607666 -1.175696
Pb 13.35489 12.89203 12.27316 -0.023497 0.169789 0.972417
Pb 13.39143 13.11293 6.13864 -0.781665 -1.019841 0.213012
Pb 6.86094 6.28797 12.61149 -0.894065 -0.258747 -0.108328
Pb 12.9904 6.50222 12.43299 0.425051 0.107834 0.301558
Pb 6.67776 12.67078 6.29782 0.607748 0.544534 -0.664259
Pb 6.79298 12.57197 12.50589 0.707105 0.556131 -0.394402
Pb 12.93298 6.46711 6.20213 1.036174 0.23474 0.310287
I 3.38613 -0.2944 18.54991 1.070521 -0.068182 -0.017824
I 16.48854 -0.15742 18.87227 -0.747662 0.056467 0.018105
I 0.64896 2.82527 18.58262 -0.085777 -0.10034 0.007167
I 0.84803 15.68957 18.37876 0.066412 -0.082227 0.040178
I 19.18251 0.47435 3.51179 0.064068 0.007901 -1.347728
I 19.27162 0.12436 15.61354 -0.039858 0.143768 2.165531
I 3.76098 19.14611 6.18603 0.247282 0.057319 -0.137662
I 16.11921 0.17949 12.76946 0.177369 0.006785 -0.138573
I 16.74472 19.30897 6.3016 -1.915269 -0.032803 0.065663
I 3.34352 -0.27283 12.45721 0.411037 -0.034235 0.04306
I 6.38484 3.25395 0.21471 0.076472 -0.021337 -0.067792
I 13.73829 15.68259 18.62575 -0.098137 1.192998 -0.060427
I 7.12031 15.53821 18.45071 0.021197 0.54887 -0.016684
I 13.2102 2.8991 18.6875 -0.020538 0.219585 0.10488
I 0.39813 6.43242 3.0868 0.009514 0.070297 -0.622578
I 19.76636 12.92349 15.80358 -0.056056 0.100903 -1.145438
I 0.66039 6.18713 15.55487 -0.006834 0.00143 -0.78677
I 19.47687 13.16768 3.05564 -0.049787 0.042779 0.544274
I 0.48284 2.97475 12.34917 -0.113413 -0.254256 0.063611
I 19.63167 16.37873 6.38682 -0.01945 -0.137369 -0.097607
I 19.60459 16.31263 12.53138 -0.076309 -1.090245 -0.039692
I 0.30487 3.13862 6.06791 -0.074383 -0.175122 -0.000951
I 3.67348 6.03332 18.52939 0.481758 0.041895 0.083934
I 16.60173 12.72275 18.57686 0.356813 -0.069246 0.0786
I 16.62551 6.17915 18.61103 -1.19143 -0.042395 0.05361
I 3.51328 12.96312 -0.05731 0.01855 0.015792 -0.000619
I 6.53477 -0.15549 15.5485 0.028127 -0.034139 0.860339
I 13.45678 19.30298 2.94155 -0.034189 -0.034794 0.701916
I 6.51501 0.06871 2.99337 0.02196 -0.023782 0.852904
I 13.12708 -0.10323 15.65738 -0.09035 -0.044145 0.51542
I 3.363 6.28597 6.25327 1.194041 0.074287 0.027405
I 16.39878 12.72258 12.54736 0.619484 0.070873 -0.06186
I 16.49125 12.89254 6.15838 -0.709557 -0.014153 0.01729
I 3.47135 5.97703 12.43547 0.816355 0.061342 -0.005705
I 16.52011 6.57677 12.39188 -1.012319 0.000357 0.018525
I 3.76824 12.915 6.11214 -1.145302 -0.016218 -0.035526
I 3.67485 12.57756 12.53668 0.588242 0.041933 0.005742
I 16.32625 6.75479 6.20771 -0.291934 -0.08423 0.020261
I 6.61369 3.34378 6.30933 0.032553 -0.612957 -0.069557
I 13.32035 16.14007 12.52447 0.009 -0.163927 -0.033508
I 6.90004 15.89145 12.23606 0.040246 -0.137543 0.142905
I 13.06785 3.28579 6.24244 -0.042096 -0.449505 0.058501
I 13.33739 16.02453 6.37391 0.036946 0.902196 -0.00748
I 6.811 2.96827 12.50616 0.002226 0.528475 -0.065661
I 12.91705 3.09054 12.72614 -0.032504 0.710326 -0.119105
I 6.94962 16.10006 6.19578 0.068697 0.167158 -0.0855
I 6.41282 6.40041 3.05705 0.047949 0.037531 0.415075
I 13.52712 12.54563 15.58357 -0.144924 0.049564 -0.046118
I 13.43335 6.21749 15.57056 0.052785 0.022085 -0.007125
I 6.88483 12.98952 3.21325 -0.086334 0.019257 -0.658578
I 6.92459 12.43404 15.6522 -0.004402 0.004631 -0.886617
I 12.91989 6.65925 3.21148 0.064403 -0.002299 -0.412132
I 13.09457 13.23403 3.05983 -0.017524 -0.024106 1.119
I 6.78107 5.94865 15.66557 0.026997 -0.053965 -0.537231
I 10.34693 18.9327 18.46543 0.149406 -0.024182 -0.022046
I 0.75958 9.20773 18.51421 -0.067768 -0.04741 0.018627
I 0.86369 19.03881 9.16239 -0.161869 0.033536 -0.164088
I 9.50374 0.13464 6.49758 1.627148 0.086599 -0.187001
I 9.87332 0.03305 12.39046 -0.183704 -0.053889 0.074481